# LAMMPS Input data converted from Gaussian output

3 atoms
1 atom types

-20.000000    20.000000    xlo xhi
-20.000000    20.000000    ylo yhi
-20.000000    20.000000    zlo zhi

0.000000    0.000000    0.000000    xy xz yz

Masses

1    78.960000

Atoms

1 1 0.0 0.0 1.982148551
2 1 0.0 1.71655024 -0.991074273
3 1 0.0 -1.71655024 -0.991074273
