# LAMMPS Input data converted from Gaussian output

3 atoms
1 atom types

-20.000000    20.000000    xlo xhi
-20.000000    20.000000    ylo yhi
-20.000000    20.000000    zlo zhi

0.000000    0.000000    0.000000    xy xz yz

Masses

1    78.960000

Atoms

1 1 0.0 0.0 0.968331404
2 1 0.0 1.98501014 -0.484165702
3 1 0.0 -1.98501014 -0.484165702
