# se8_ladder

          8 atoms
          1 atom types
#
#  Se 
#   8 
#
     -20.000000    20.000000   xlo xhi
     -20.000000    20.000000   ylo yhi
     -20.000000    20.000000   zlo zhi

     0.000000     0.000000     0.000000   xy xz yz

Masses

       1    78.960000

Atoms

           1           1    -1.409105        0.512566       -1.164318
           2           1    -1.409105       -0.512566       -3.492952
           3           1    -1.409105        0.512566        3.492949
           4           1    -1.409105       -0.512566        1.164314
           5           1     1.409105        0.512566       -1.164318
           6           1     1.409105       -0.512566       -3.492952
           7           1     1.409105        0.512566        3.492949
           8           1     1.409105       -0.512566        1.164314
