# se2

          2 atoms
          1 atom types
#
#  Se 
#   2 
#
     -15.000000    15.000000   xlo xhi
     -15.000000    15.000000   ylo yhi
     -15.000000    15.000000   zlo zhi

     0.000000     0.000000     0.000000   xy xz yz

Masses

       1    78.960000

Atoms

           1           1      0.223688        0.998175       -0.397316
           2           1     -0.223688       -0.998176        0.397316
