# LAMMPS Input data converted from Gaussian output

6 atoms
1 atom types

-20.000000    20.000000    xlo xhi
-20.000000    20.000000    ylo yhi
-20.000000    20.000000    zlo zhi

0.000000    0.000000    0.000000    xy xz yz

Masses

1    78.960000

Atoms

1 1 -1.464516743 -0.823297674 0.866001553
2 1 2.167459296 -0.768729021 0.273222494
3 1 -0.120661106 1.930925252 0.722445507
4 1 -2.468580582 0.335890447 -0.804433589
5 1 1.603262806 1.2979634 -0.699369961
6 1 0.283036327 -1.972752406 -0.357866005
