# LAMMPS Input data converted from Gaussian output

6 atoms
1 atom types

-20.000000    20.000000    xlo xhi
-20.000000    20.000000    ylo yhi
-20.000000    20.000000    zlo zhi

0.000000    0.000000    0.000000    xy xz yz

Masses

1    78.960000

Atoms

1 1 -1.562087085 -0.609257568 0.892844958
2 1 2.047877509 -1.027256847 0.274893285
3 1 0.122394589 1.963533244 0.622124116
4 1 -2.533830851 0.465865598 -0.781511319
5 1 1.879776683 1.160609519 -0.642538457
6 1 0.045869153 -1.953493942 -0.365812579
