# LAMMPS Input data converted from Gaussian output

6 atoms
1 atom types

-20.000000    20.000000    xlo xhi
-20.000000    20.000000    ylo yhi
-20.000000    20.000000    zlo zhi

0.000000    0.000000    0.000000    xy xz yz

Masses

1    78.960000

Atoms

1 1 -1.486786347 -0.74659967 0.893552034
2 1 2.158176585 -0.839903658 0.250395297
3 1 -0.022165795 1.940095004 0.718306706
4 1 -2.507257655 0.357002745 -0.814673672
5 1 1.643765783 1.254275717 -0.709401939
6 1 0.214267434 -1.964870136 -0.338178428
