# LAMMPS Input data converted from Gaussian output

6 atoms
1 atom types

-20.000000    20.000000    xlo xhi
-20.000000    20.000000    ylo yhi
-20.000000    20.000000    zlo zhi

0.000000    0.000000    0.000000    xy xz yz

Masses

1    78.960000

Atoms

1 1 -1.630981036 -0.539726847 0.947460574
2 1 2.016231789 -1.193773353 0.226970628
3 1 0.179410899 1.835571538 0.389109453
4 1 -2.682386717 0.527338738 -0.683502676
5 1 2.180232322 1.147035408 -0.388173869
6 1 -0.062507258 -1.776445485 -0.491864109
