# LAMMPS Input data converted from Gaussian output

6 atoms
1 atom types

-20.000000    20.000000    xlo xhi
-20.000000    20.000000    ylo yhi
-20.000000    20.000000    zlo zhi

0.000000    0.000000    0.000000    xy xz yz

Masses

1    78.960000

Atoms

1 1 -1.628054447 -0.644198676 0.968957908
2 1 2.027007044 -1.261440492 0.161386498
3 1 0.157892893 1.829409899 0.139570303
4 1 -2.735489304 0.559204147 -0.533519609
5 1 2.251016002 1.168143336 -0.122400639
6 1 -0.072372189 -1.651118209 -0.613994461
