# LAMMPS Input data converted from Gaussian output

6 atoms
1 atom types

-20.000000    20.000000    xlo xhi
-20.000000    20.000000    ylo yhi
-20.000000    20.000000    zlo zhi

0.000000    0.000000    0.000000    xy xz yz

Masses

1    78.960000

Atoms

1 1 -1.628925357 -0.63807591 0.972507025
2 1 2.032525421 -1.260227109 0.156966232
3 1 0.153875262 1.820614772 0.14409518
4 1 -2.734870876 0.552844389 -0.541242379
5 1 2.248206748 1.173009322 -0.124688167
6 1 -0.070811202 -1.648165469 -0.607637889
