# LAMMPS Input data converted from Gaussian output

6 atoms
1 atom types

-20.000000    20.000000    xlo xhi
-20.000000    20.000000    ylo yhi
-20.000000    20.000000    zlo zhi

0.000000    0.000000    0.000000    xy xz yz

Masses

1    78.960000

Atoms

1 1 -1.606023962 -0.553607426 0.917428014
2 1 2.013639492 -1.134425056 0.262022938
3 1 0.176199707 1.903388725 0.504069585
4 1 -2.617845333 0.516550178 -0.730948618
5 1 2.068257691 1.135340564 -0.518025002
6 1 -0.034227599 -1.867246983 -0.434546918
