# LAMMPS Input data converted from Gaussian output

6 atoms
1 atom types

-20.000000    20.000000    xlo xhi
-20.000000    20.000000    ylo yhi
-20.000000    20.000000    zlo zhi

0.000000    0.000000    0.000000    xy xz yz

Masses

1    78.960000

Atoms

1 1 -1.638740669 -0.559693493 0.974796373
2 1 2.032294858 -1.235538863 0.18095789
3 1 0.163499534 1.790954625 0.264337952
4 1 -2.724343159 0.526709243 -0.627037289
5 1 2.237186844 1.170042511 -0.250202259
6 1 -0.069897405 -1.692474025 -0.542852666
