# LAMMPS Input data converted from Gaussian output

6 atoms
1 atom types

-20.000000    20.000000    xlo xhi
-20.000000    20.000000    ylo yhi
-20.000000    20.000000    zlo zhi

0.000000    0.000000    0.000000    xy xz yz

Masses

1    78.960000

Atoms

1 1 -1.47624157 -0.905536771 0.837277579
2 1 2.162544737 -0.740361909 0.295395478
3 1 -0.174568148 1.923045411 0.723007636
4 1 -2.421023533 0.371120601 -0.792607965
5 1 1.596681095 1.324785432 -0.672209076
6 1 0.312607422 -1.973052767 -0.390863654
