# LAMMPS Input data converted from Gaussian output

6 atoms
1 atom types

-20.000000    20.000000    xlo xhi
-20.000000    20.000000    ylo yhi
-20.000000    20.000000    zlo zhi

0.000000    0.000000    0.000000    xy xz yz

Masses

1    78.960000

Atoms

1 1 -1.636583568 -0.544274147 0.962332894
2 1 2.023269597 -1.216587296 0.204779549
3 1 0.173106593 1.808729779 0.327804408
4 1 -2.707039571 0.526751948 -0.656890807
5 1 2.215478601 1.157923595 -0.320329799
6 1 -0.068231654 -1.732543877 -0.517696246
