# se3

          3 atoms
          1 atom types
#
#  Se 
#   3 
#
    -15.000000    15.000000   xlo xhi
    -15.000000    15.000000   ylo yhi
    -15.000000    15.000000   zlo zhi

     0.000000     0.000000     0.000000   xy xz yz

Masses

       1    78.960000

Atoms

           1           1      0.0             0.0             0.0
           2           1      2.36            0.0             0.0
           3           1      1.18            2.04382         0.0
