# se8_ring

          8 atoms
          1 atom types
#
#  Se 
#   8 
#
    -15.000000    15.000000   xlo xhi
    -15.000000    15.000000   ylo yhi
    -15.000000    15.000000   zlo zhi

     0.000000     0.000000     0.000000   xy xz yz

Masses

       1    78.960000

Atoms

           1           1     -0.819574       -0.186211       -2.620704
           2           1      1.284951       -1.650653        1.802933
           3           1      0.258148       -2.752133       -0.009332
           4           1     -0.217311        1.980871       -1.914097
           5           1      0.907890       -1.664661       -1.997252
           6           1      0.183374        1.999173        1.884852
           7           1     -0.277102       -0.152860        2.732732
           8           1     -1.320371        2.426467        0.120866
