# Converted from POSCAR to lammps format

2 atoms
1 atom types

0.000000   10.000000   xlo xhi
0.000000   10.000000   ylo yhi
0.000000   10.000000   zlo zhi

  0.000000    0.000000    0.000000   xy xz yz

Masses

       1    78.960000

Atoms

   1  1       0.000000 0.000000 0.000000
   2  1       0.000000 0.000000 2.560570
