# LAMMPS Input data converted from Gaussian output

8 atoms
1 atom types

-20.000000    20.000000    xlo xhi
-20.000000    20.000000    ylo yhi
-20.000000    20.000000    zlo zhi

0.000000    0.000000    0.000000    xy xz yz

Masses

1    78.960000

Atoms

1 1 1.394880684 -1.32329892 -1.685818182
2 1 -2.667841677 1.197660049 -0.54428609
3 1 -1.380239927 -1.302412315 1.697511359
4 1 -2.63620092 -1.176944241 -0.166666079
5 1 0.414614048 1.27779672 1.091530123
6 1 2.648194135 -1.162074673 0.177352082
7 1 -0.427562398 1.271564769 -1.100910498
8 1 2.654156058 1.217708606 0.53128729
