# LAMMPS Input data converted from Gaussian output

8 atoms
1 atom types

-20.000000    20.000000    xlo xhi
-20.000000    20.000000    ylo yhi
-20.000000    20.000000    zlo zhi

0.000000    0.000000    0.000000    xy xz yz

Masses

1    78.960000

Atoms

1 1 3.357008719 -1.474468032 0.061538459
2 1 -3.394186596 -0.642404845 0.07177128
3 1 -0.171723707 -1.19001275 0.865048536
4 1 -1.525501738 -1.600197213 -0.9891015
5 1 -0.180744833 1.132974936 0.752782477
6 1 3.188644061 0.75055653 0.207364455
7 1 -2.696173128 1.545604298 0.113941519
8 1 1.422677222 1.477947066 -1.083345222
