# LAMMPS Input data converted from Gaussian output

8 atoms
1 atom types

-20.000000    20.000000    xlo xhi
-20.000000    20.000000    ylo yhi
-20.000000    20.000000    zlo zhi

0.000000    0.000000    0.000000    xy xz yz

Masses

1    78.960000

Atoms

1 1 1.502092286 -1.645662873 -1.318525281
2 1 -3.033620919 0.647658691 -0.314081065
3 1 -0.654328065 -1.106682155 1.580478762
4 1 -2.212160681 -1.556162818 -0.023803431
5 1 0.158558445 1.392985441 0.935429137
6 1 2.946215088 -0.748384501 0.165762861
7 1 -1.008440002 1.416365323 -1.127562574
8 1 2.301683845 1.599882898 0.102301594
