# LAMMPS Input data converted from Gaussian output

8 atoms
1 atom types

-20.000000    20.000000    xlo xhi
-20.000000    20.000000    ylo yhi
-20.000000    20.000000    zlo zhi

0.000000    0.000000    0.000000    xy xz yz

Masses

1    78.960000

Atoms

1 1 1.655681485 -2.051908316 -1.186681563
2 1 -2.801630576 1.107835762 -0.093337124
3 1 -1.590976156 -2.061198424 1.300800134
4 1 -2.572961784 -1.215936789 -0.509358134
5 1 0.616946783 1.902785378 0.988320456
6 1 2.870527501 -1.01311904 0.373454274
7 1 -0.820973136 2.014544131 -0.891564931
8 1 2.643385883 1.316997303 0.018366894
