# LAMMPS Input data converted from Gaussian output

8 atoms
1 atom types

-20.000000    20.000000    xlo xhi
-20.000000    20.000000    ylo yhi
-20.000000    20.000000    zlo zhi

0.000000    0.000000    0.000000    xy xz yz

Masses

1    78.960000

Atoms

1 1 1.637304122 -1.581662187 -1.49843401
2 1 -2.701491825 1.308911882 -0.432914424
3 1 -1.634095932 -1.569102641 1.5138829
4 1 -2.870193686 -1.070974767 -0.277490028
5 1 0.474912512 1.318944998 1.086426811
6 1 2.896340566 -1.052849758 0.269933755
7 1 -0.487380958 1.322419475 -1.084207347
8 1 2.684605197 1.324312998 0.422802346
