# LAMMPS Input data converted from Gaussian output

8 atoms
1 atom types

-20.000000    20.000000    xlo xhi
-20.000000    20.000000    ylo yhi
-20.000000    20.000000    zlo zhi

0.000000    0.000000    0.000000    xy xz yz

Masses

1    78.960000

Atoms

1 1 2.59150217 -1.689097636 -0.800609696
2 1 -3.309472023 -0.242378066 -0.04409705
3 1 -0.297924643 -1.068143605 1.278599387
4 1 -1.616198199 -1.825211285 -0.464264526
5 1 -0.119472432 1.280878082 0.898427312
6 1 3.120016841 0.159182416 0.36136117
7 1 -2.004800666 1.531181223 -0.700620893
8 1 1.636348952 1.85358887 -0.528795701
