# LAMMPS Input data converted from Gaussian output

8 atoms
1 atom types

-20.000000    20.000000    xlo xhi
-20.000000    20.000000    ylo yhi
-20.000000    20.000000    zlo zhi

0.000000    0.000000    0.000000    xy xz yz

Masses

1    78.960000

Atoms

1 1 0.183560125 -2.211051594 -1.151161816
2 1 -2.112400033 1.753718798 0.154498491
3 1 -1.685207601 -1.757350796 1.231216374
4 1 -2.535927541 -0.529330933 -0.474575984
5 1 1.571275136 1.905621467 0.833713591
6 1 1.89405134 -1.879219475 0.348790959
7 1 -0.096889504 2.497019377 -0.715655311
8 1 2.781538081 0.220593154 -0.226826301
