# LAMMPS Input data converted from Gaussian output

8 atoms
1 atom types

-20.000000    20.000000    xlo xhi
-20.000000    20.000000    ylo yhi
-20.000000    20.000000    zlo zhi

0.000000    0.000000    0.000000    xy xz yz

Masses

1    78.960000

Atoms

1 1 0.384723998 -1.989782229 -1.281799449
2 1 -2.310413714 1.514527687 0.020840711
3 1 -1.459150256 -1.776758943 1.393374058
4 1 -2.428395131 -0.863242073 -0.412621301
5 1 1.280711143 1.949648892 0.925196378
6 1 2.071879841 -1.721082173 0.232062494
7 1 -0.313539049 2.384739717 -0.757780175
8 1 2.774183168 0.501949126 -0.119272715
