# LAMMPS Input data converted from Gaussian output

8 atoms
1 atom types

-20.000000    20.000000    xlo xhi
-20.000000    20.000000    ylo yhi
-20.000000    20.000000    zlo zhi

0.000000    0.000000    0.000000    xy xz yz

Masses

1    78.960000

Atoms

1 1 1.322698362 -2.086123662 -1.164667282
2 1 -2.723861423 0.863112356 0.017358879
3 1 -1.103890259 -2.170692653 1.310212658
4 1 -2.145389916 -1.400636058 -0.49629917
5 1 0.614087088 2.25365321 0.890159198
6 1 2.593033567 -0.99751037 0.366450904
7 1 -1.034664476 2.236422929 -0.785794697
8 1 2.477987057 1.301774249 -0.137420485
