# LAMMPS Input data converted from Gaussian output

8 atoms
1 atom types

-20.000000    20.000000    xlo xhi
-20.000000    20.000000    ylo yhi
-20.000000    20.000000    zlo zhi

0.000000    0.000000    0.000000    xy xz yz

Masses

1    78.960000

Atoms

1 1 1.562459578 -1.731025376 -1.374496237
2 1 -2.75301484 1.26214934 -0.303747666
3 1 -1.568242517 -1.704013926 1.424354084
4 1 -2.849145026 -1.110738045 -0.302773327
5 1 0.542859148 1.492660384 1.067410139
6 1 2.939388051 -1.058904573 0.247788421
7 1 -0.580818196 1.541851923 -1.042683665
8 1 2.706513802 1.308020271 0.28414825
