# LAMMPS Input data converted from Gaussian output

8 atoms
1 atom types

-20.000000    20.000000    xlo xhi
-20.000000    20.000000    ylo yhi
-20.000000    20.000000    zlo zhi

0.000000    0.000000    0.000000    xy xz yz

Masses

1    78.960000

Atoms

1 1 3.11702536 -1.550970748 -0.260945075
2 1 -3.243123742 -0.77288382 -0.135298193
3 1 -0.22134774 -0.989227005 1.238611902
4 1 -1.187941301 -1.720019399 -0.756863042
5 1 -0.373804543 1.289433873 0.890025591
6 1 3.143357294 0.649736013 0.181008404
7 1 -2.620920541 1.443547221 -0.278764452
8 1 1.386755215 1.650383854 -0.877775138
