# se8_helix

          8 atoms
          1 atom types
#
#  Se 
#   8 
#
    -20.000000    20.000000   xlo xhi
    -20.000000    20.000000   ylo yhi
    -20.000000    20.000000   zlo zhi

     0.000000     0.000000     0.000000   xy xz yz

Masses

       1    78.960000

Atoms

           1           1    -0.363089       -0.774035       -4.239727
           2           1    -0.377342       -0.826235        0.866339
           3           1    -0.390259       -0.771141        5.856810
           4           1    -0.390261        0.771141       -5.856810
           5           1     1.130688        0.056198       -2.492304
           6           1    -0.377342        0.826235       -0.866341
           7           1     1.130688       -0.056200        2.492304
           8           1    -0.363087        0.774035        4.239727
