# se6_ring

          6 atoms
          1 atom types
#
#  Se 
#   6 
#
     -20.000000    20.000000   xlo xhi
     -20.000000    20.000000   ylo yhi
     -20.000000    20.000000   zlo zhi

     0.000000     0.000000     0.000000   xy xz yz

Masses

       1    78.960000

Atoms

           1           1     1.397476       -1.620413        0.543716
           2           1     0.704580        2.020452        0.543716
           3           1    -2.102055       -0.400045        0.543716
           4           1    -1.397469        1.620405       -0.543720
           5           1    -0.704578       -2.020449       -0.543720
           6           1     2.102051        0.400038       -0.543720
