# Converted from POSCAR to lammps format

3 atoms
2 atom types

0.000000    3.255266   xlo xhi
0.000000    2.819143   ylo yhi
0.000000   13.004520   zlo zhi

 -1.627633    0.000000    0.000000   xy xz yz

Masses

1 183.850000
2 78.9600

Atoms

   1  1      -0.000010 1.879449 3.251087
   2  2      1.627639 0.939706 4.956351
   3  2      1.627637 0.939703 1.545952
