# Converted from POSCAR to lammps format

3 atoms
2 atom types

0.000000    3.374847   xlo xhi
0.000000    2.922703   ylo yhi
0.000000   13.004520   zlo zhi

 -1.687424    0.000000    0.000000   xy xz yz

Masses

1 183.850000
2 78.9600

Atoms

   1  1      -0.000016 1.948481 3.251256
   2  2      1.687430 0.974228 4.911589
   3  2      1.687433 0.974229 1.590545
