# Converted from POSCAR to lammps format

3 atoms
2 atom types

0.000000    3.388134   xlo xhi
0.000000    2.934210   ylo yhi
0.000000   13.004520   zlo zhi

 -1.694067    0.000000    0.000000   xy xz yz

Masses

1 183.850000
2 78.9600

Atoms

   1  1      0.000005 1.956137 3.251116
   2  2      1.694039 0.978087 4.907030
   3  2      1.694090 0.978056 1.595244
