# Converted from POSCAR to lammps format

3 atoms
2 atom types

0.000000    3.268553   xlo xhi
0.000000    2.830650   ylo yhi
0.000000   13.004520   zlo zhi

 -1.634276    0.000000    0.000000   xy xz yz

Masses

1 183.850000
2 78.9600

Atoms

   1  1      -0.000001 1.887099 3.251158
   2  2      1.634270 0.943552 4.951170
   3  2      1.634284 0.943548 1.551062
