# Converted from POSCAR to lammps format

3 atoms
2 atom types

0.000000    3.295126   xlo xhi
0.000000    2.853663   ylo yhi
0.000000   13.004520   zlo zhi

 -1.647563    0.000000    0.000000   xy xz yz

Masses

1 183.850000
2 78.9600

Atoms

   1  1      0.000000 1.902494 3.251108
   2  2      1.647567 0.951197 4.938507
   3  2      1.647559 0.951192 1.563775
