# Converted from POSCAR to lammps format

3 atoms
2 atom types

0.000000    3.334987   xlo xhi
0.000000    2.888183   ylo yhi
0.000000   13.004520   zlo zhi

 -1.667493    0.000000    0.000000   xy xz yz

Masses

1 183.850000
2 78.9600

Atoms

   1  1      0.000005 1.925458 3.251216
   2  2      1.667490 0.962727 4.926633
   3  2      1.667491 0.962726 1.575541
