# Converted from POSCAR to lammps format

3 atoms
2 atom types

0.000000    3.348274   xlo xhi
0.000000    2.899690   ylo yhi
0.000000   13.004520   zlo zhi

 -1.674137    0.000000    0.000000   xy xz yz

Masses

1 183.850000
2 78.9600

Atoms

   1  1      -0.000000 1.933127 3.251133
   2  2      1.674136 0.966563 4.922676
   3  2      1.674137 0.966563 1.579581
