# Converted from POSCAR to lammps format

3 atoms
2 atom types

0.000000    3.361560   xlo xhi
0.000000    2.911197   ylo yhi
0.000000   13.004520   zlo zhi

 -1.680780    0.000000    0.000000   xy xz yz

Masses

1 183.850000
2 78.9600

Atoms

   1  1      -0.000000 1.940798 3.251129
   2  2      1.680780 0.970399 4.916569
   3  2      1.680780 0.970399 1.585692
