# Converted from POSCAR to lammps format

3 atoms
2 atom types

0.000000    3.321700   xlo xhi
0.000000    2.876677   ylo yhi
0.000000   13.004520   zlo zhi

 -1.660850    0.000000    0.000000   xy xz yz

Masses

1 183.850000
2 78.9600

Atoms

   1  1      -0.000000 1.917784 3.251130
   2  2      1.660850 0.958892 4.930984
   3  2      1.660850 0.958892 1.571276
